
Running Job 1 of 1 h2o.in
qchem h2o.in_55088.0 /scratch/202155638/qchem55088/ 0
/opt/sw/arch/manual/sticky_20170712/software/Q-Chem/5.3.0-SHMEM/exe/qcprog.exe_s h2o.in_55088.0 /scratch/202155638/qchem55088/
                  Welcome to Q-Chem
     A Quantum Leap Into The Future Of Chemistry


 Q-Chem 5.3, Q-Chem, Inc., Pleasanton, CA (2020)

 License issued to: SRG Nathalie Vaeck, Universite Libre de Bruxelles

 Yihan Shao,  Zhengting Gan,  E. Epifanovsky,  A. T. B. Gilbert,  M. Wormit,  
 J. Kussmann,  A. W. Lange,  A. Behn,  Jia Deng,  Xintian Feng,  D. Ghosh,  
 M. Goldey,  P. R. Horn,  L. D. Jacobson,  I. Kaliman,  T. Kus,  A. Landau,  
 Jie Liu,  E. I. Proynov,  R. M. Richard,  R. P. Steele,  E. J. Sundstrom,  
 H. L. Woodcock III,  P. M. Zimmerman,  D. Zuev,  B. Alam,  B. Albrecht,  
 A. Aldossary,  E. Alguire,  S. A. Baeppler,  D. Barton,  Z. Benda,  
 Y. A. Bernard,  E. J. Berquist,  K. B. Bravaya,  H. Burton,  K. Carter-Fenk,  
 D. Casanova,  Chun-Min Chang,  Yunqing Chen,  A. Chien,  K. D. Closser,  
 M. P. Coons,  S. Coriani,  S. Dasgupta,  A. L. Dempwolff,  M. Diedenhofen,  
 Hainam Do,  R. G. Edgar,  Po-Tung Fang,  S. Faraji,  S. Fatehi,  
 Qingguo Feng,  J. Fosso-Tande,  J. Gayvert,  Qinghui Ge,  A. Ghysels,  
 G. Gidofalvi,  J. Gomes,  J. Gonthier,  S. Gulania,  A. Gunina,  D. Hait,  
 M. W. D. Hanson-Heine,  S. Hammes-Schiffer,  P. H. P. Harbach,  
 A. W. Hauser,  M. F. Herbst,  J. E. Herr,  E. G. Hohenstein,  Z. C. Holden,  
 S. Houck,  Kerwin Hui,  B. C. Huynh,  M. Ivanov,  T.-C. Jagau,  Hyunjun Ji,  
 B. Kaduk,  K. Khistyaev,  Jaehoon Kim,  P. Klunzinger,  K. Koh,  
 D. Kosenkov,  L. Koulias,  T. Kowalczyk,  C. M. Krauter,  A. Kunitsa,  
 Ka Un Lao,  A. Laurent,  K. V. Lawler,  Joonho Lee,  D. Lefrancois,  
 S. Lehtola,  D. S. Levine,  Yi-Pei Li,  You-Sheng Lin,  Fenglai Liu,  
 Kuan-Yu Liu,  E. Livshits,  M. Loipersberger,  A. Luenser,  P. Manohar,  
 E. Mansoor,  S. F. Manzer,  Shan-Ping Mao,  Yuezhi Mao,  N. Mardirossian,  
 A. V. Marenich,  T. Markovich,  L. A. Martinez-Martinez,  S. A. Maurer,  
 N. J. Mayhall,  S. C. McKenzie,  J.-M. Mewes,  P. Morgante,  A. F. Morrison,  
 J. W. Mullinax,  K. Nanda,  T. S. Nguyen-Beck,  R. Olivares-Amaya,  
 K. J. Oosterbaan,  J. A. Parkhill,  S. K. Paul,  F. Pavosevic,  Zheng Pei,  
 T. M. Perrine,  F. Plasser,  P. Pokhilko,  S. Prager,  A. Prociuk,  
 E. Ramos,  B. Rana,  D. R. Rehn,  F. Rob,  E. Rossomme,  M. Scheurer,  
 M. Schneider,  N. Sergueev,  S. M. Sharada,  S. Sharma,  W. Skomorowski,  
 D. W. Small,  T. Stauch,  C. J. Stein,  T. Stein,  Yu-Chuan Su,  
 S. P. Veccham,  Zhen Tao,  A. J. W. Thom,  A. Tkatchenko,  T. Tsuchimochi,  
 N. M. Tubman,  L. Vogt,  M. L. Vidal,  O. Vydrov,  M. A. Watson,  J. Wenzel,  
 M. de Wergifosse,  T. A. Wesolowski,  A. White,  J. Witte,  A. Yamada,  
 Jun Yang,  K. Yao,  S. Yeganeh,  S. R. Yost,  Zhi-Qiang You,  A. Zech,  
 Igor Ying Zhang,  Xing Zhang,  Yan Zhao,  Ying Zhu,  B. R. Brooks,  
 G. K. L. Chan,  C. J. Cramer,  M. S. Gordon,  W. J. Hehre,  A. Klamt,  
 M. W. Schmidt,  C. D. Sherrill,  D. G. Truhlar,  A. Aspuru-Guzik,  R. Baer,  
 A. T. Bell,  N. A. Besley,  Jeng-Da Chai,  A. E. DePrince, III,  
 R. A. DiStasio Jr.,  A. Dreuw,  B. D. Dunietz,  T. R. Furlani,  
 Chao-Ping Hsu,  Yousung Jung,  Jing Kong,  D. S. Lambrecht,  WanZhen Liang,  
 C. Ochsenfeld,  V. A. Rassolov,  L. V. Slipchenko,  J. E. Subotnik,  
 T. Van Voorhis,  J. M. Herbert,  A. I. Krylov,  P. M. W. Gill,  M. Head-Gordon

 Contributors to earlier versions of Q-Chem not listed above: 
 R. D. Adamson,  B. Austin,  J. Baker,  G. J. O. Beran,  K. Brandhorst,  
 S. T. Brown,  E. F. C. Byrd,  A. K. Chakraborty,  C.-L. Cheng,  
 Siu Hung Chien,  D. M. Chipman,  D. L. Crittenden,  H. Dachsel,  
 R. J. Doerksen,  A. D. Dutoi,  L. Fusti-Molnar,  W. A. Goddard III,  
 A. Golubeva-Zadorozhnaya,  S. R. Gwaltney,  G. Hawkins,  A. Heyden,  
 S. Hirata,  G. Kedziora,  F. J. Keil,  C. Kelley,  Jihan Kim,  R. A. King,  
 R. Z. Khaliullin,  P. P. Korambath,  W. Kurlancheek,  A. M. Lee,  M. S. Lee,  
 S. V. Levchenko,  Ching Yeh Lin,  D. Liotard,  R. C. Lochan,  I. Lotan,  
 P. E. Maslen,  N. Nair,  D. P. O'Neill,  D. Neuhauser,  E. Neuscamman,  
 C. M. Oana,  R. Olson,  B. Peters,  R. Peverati,  P. A. Pieniazek,  
 Y. M. Rhee,  J. Ritchie,  M. A. Rohrdanz,  E. Rosta,  N. J. Russ,  
 H. F. Schaefer III,  N. E. Schultz,  N. Shenvi,  A. C. Simmonett,  A. Sodt,  
 D. Stuck,  K. S. Thanthiriwatte,  V. Vanovschi,  Tao Wang,  A. Warshel,  
 C. F. Williams,  Q. Wu,  X. Xu,  W. Zhang

 Please cite Q-Chem as follows:
 Y. Shao et al., Mol. Phys. 113, 184-215 (2015)
 DOI: 10.1080/00268976.2014.952696

 Q-Chem 5.3.0 for Intel X86 EM64T Linux

 Parts of Q-Chem use Armadillo 9.800.1 (Horizon Scraper).
 http://arma.sourceforge.net/

 Q-Chem begins on Fri Dec 11 10:40:27 2020  

Host: 
0

     Scratch files written to /scratch/202155638/qchem55088//
 Jun1620 |scratch|qcdevops|jenkins|workspace|build_RNUM 1111   
Processing $rem in /opt/sw/arch/manual/sticky_20170712/software/Q-Chem/5.3.0-SHMEM/config/preferences:
Processing $rem in /home/niacobel/.qchemrc:

Checking the input file for inconsistencies... 	...done.

--------------------------------------------------------------
User input:
--------------------------------------------------------------
$molecule
0 1
H       0.000000    -0.115747     1.133769
H       0.000000     1.109931    -0.113383
O       0.000000     0.005817    -0.020386
$end

$rem
JOBTYPE              sp
EXCHANGE             b3lyp
BASIS                6-31G
CIS_N_ROOTS          4
CIS_CONVERGENCE      8
CORRELATION          none
MAX_SCF_CYCLES       600
MAX_CIS_CYCLES       50
SCF_ALGORITHM        diis
MEM_STATIC           300
MEM_TOTAL            2000
SYMMETRY             false
SYM_IGNORE           true
UNRESTRICTED         false
CIS_SINGLETS         true
CIS_TRIPLETS         true
CALC_SOC             true
SET_ITER             300
STS_MOM              true
$end
--------------------------------------------------------------
 ----------------------------------------------------------------
             Standard Nuclear Orientation (Angstroms)
    I     Atom           X                Y                Z
 ----------------------------------------------------------------
    1      H       0.0000000000    -0.1157470000     1.1337690000
    2      H       0.0000000000     1.1099310000    -0.1133830000
    3      O       0.0000000000     0.0058170000    -0.0203860000
 ----------------------------------------------------------------
 Nuclear Repulsion Energy =           7.77112034 hartrees
 There are        5 alpha and        5 beta electrons
 Requested basis set is 6-31G
 There are 7 shells and 13 basis functions

 Total QAlloc Memory Limit   2000 MB
 Mega-Array Size       294 MB
 MEM_STATIC part       300 MB

                       Distance Matrix (Angstroms)
             H (  1)   H (  2)
   H (  2)  1.748621
   O (  3)  1.160539  1.108024
 
 A cutoff of  1.0D-11 yielded     28 shell pairs
 There are       103 function pairs
 Smallest overlap matrix eigenvalue = 9.37E-02

 Scale SEOQF with 1.000000e+00/1.000000e+00/1.000000e+00

 Standard Electronic Orientation quadrupole field applied
 Nucleus-field energy     =    -0.0000000005 hartrees
 Guess from superposition of atomic densities
 Warning:  Energy on first SCF cycle will be non-variational
 SAD guess density has 10.000000 electrons

 -----------------------------------------------------------------------
  General SCF calculation program by
  Eric Jon Sundstrom, Paul Horn, Yuezhi Mao, Dmitri Zuev, Alec White,
  David Stuck, Shaama M.S., Shane Yost, Joonho Lee, David Small,
  Daniel Levine, Susi Lehtola, Hugh Burton, Evgeny Epifanovsky,
  Bang C. Huynh
 -----------------------------------------------------------------------
 Exchange:     0.2000 Hartree-Fock + 0.0800 Slater + 0.7200 B88
 Correlation:  0.1900 VWN1RPA + 0.8100 LYP
 Using SG-1 standard quadrature grid
 using 2 threads for integral computing
 -------------------------------------------------------
 OpenMP Integral computing Module                
 Release: version 1.0, May 2013, Q-Chem Inc. Pittsburgh 
 -------------------------------------------------------
 A restricted SCF calculation will be
 performed using DIIS
 SCF converges when DIIS error is below 1.0e-08
 ---------------------------------------
  Cycle       Energy         DIIS error
 ---------------------------------------
    1     -76.2133546733      1.70e-01  
    2     -76.2837086403      6.17e-02  
    3     -76.2019302940      9.45e-02  
    4     -76.3570019521      1.37e-03  
    5     -76.3570353049      1.61e-04  
    6     -76.3570357542      1.94e-05  
    7     -76.3570357640      1.64e-06  
    8     -76.3570357641      7.11e-07  
    9     -76.3570357641      2.93e-08  
   10     -76.3570357641      2.13e-09  Convergence criterion met
 ---------------------------------------
 SCF time:   CPU 0.86s  wall 0.00s 
 SCF   energy in the final basis set =      -76.3570357641
 Total energy in the final basis set =      -76.3570357641
 
 Direct TDDFT/TDA calculation will be performed
 Exchange:     0.2000 Hartree-Fock + 0.0800 Slater + 0.7200 B88
 Correlation:  0.1900 VWN1RPA + 0.8100 LYP
 Using SG-1 standard quadrature grid
 Triplet excitation energies requested
 Singlet excitation energies requested
 CIS energy converged when residual is below 10e- 8
 ---------------------------------------------------
 Iter    Rts Conv    Rts Left    Ttl Dev     Max Dev
 ---------------------------------------------------
   1         0           4      0.022652    0.006028
   2         0           4      0.005717    0.003882
   3         0           4      0.000604    0.000408
   4         0           4      0.000022    0.000013
   5         2           2      0.000002    0.000001
   6         2           2      0.000000    0.000000
   7         4           0      0.000000    0.000000    Roots Converged
 ---------------------------------------------------
 Triplets done: starting singlet calculation
 ---------------------------------------------------
 Iter    Rts Conv    Rts Left    Ttl Dev     Max Dev
 ---------------------------------------------------
   8         0           4      0.040187    0.025120
   9         0           4      0.006211    0.003304
  10         0           4      0.000527    0.000298
  11         0           4      0.000035    0.000027
  12         2           2      0.000002    0.000001
  13         2           2      0.000000    0.000000
  14         4           0      0.000000    0.000000    Roots Converged
 ---------------------------------------------------
 
 ---------------------------------------------------
         TDDFT/TDA Excitation Energies              
 ---------------------------------------------------

 Excited state   1: excitation energy (eV) =    5.1669
 Total energy for state  1:                   -76.16715634 au
    Multiplicity: Triplet
    Trans. Mom.:  0.0000 X   0.0000 Y   0.0000 Z
    Strength   :     0.0000000000
    D(    5) --> V(    1) amplitude =  0.9982

 Excited state   2: excitation energy (eV) =    6.0765
 Total energy for state  2:                   -76.13372898 au
    Multiplicity: Singlet
    Trans. Mom.:  0.1591 X   0.0000 Y  -0.0000 Z
    Strength   :     0.0037677982
    D(    5) --> V(    1) amplitude =  0.9992

 Excited state   3: excitation energy (eV) =    6.9584
 Total energy for state  3:                   -76.10131974 au
    Multiplicity: Triplet
    Trans. Mom.:  0.0000 X   0.0000 Y   0.0000 Z
    Strength   :     0.0000000000
    D(    4) --> V(    1) amplitude =  0.9834

 Excited state   4: excitation energy (eV) =    7.0964
 Total energy for state  4:                   -76.09624682 au
    Multiplicity: Triplet
    Trans. Mom.:  0.0000 X   0.0000 Y   0.0000 Z
    Strength   :     0.0000000000
    D(    5) --> V(    2) amplitude =  0.9980

 Excited state   5: excitation energy (eV) =    7.8295
 Total energy for state  5:                   -76.06930672 au
    Multiplicity: Singlet
    Trans. Mom.: -0.0387 X   0.0000 Y  -0.0000 Z
    Strength   :     0.0002868084
    D(    5) --> V(    2) amplitude =  0.9990

 Excited state   6: excitation energy (eV) =    8.6463
 Total energy for state  6:                   -76.03928870 au
    Multiplicity: Triplet
    Trans. Mom.:  0.0000 X   0.0000 Y   0.0000 Z
    Strength   :     0.0000000000
    D(    3) --> V(    1) amplitude =  0.4719
    D(    4) --> V(    2) amplitude =  0.8726

 Excited state   7: excitation energy (eV) =    9.0470
 Total energy for state  7:                   -76.02456327 au
    Multiplicity: Singlet
    Trans. Mom.: -0.0000 X   0.4219 Y   0.5281 Z
    Strength   :     0.1012770585
    D(    3) --> V(    2) amplitude = -0.2857
    D(    4) --> V(    1) amplitude =  0.9481

 Excited state   8: excitation energy (eV) =   10.5648
 Total energy for state  8:                   -75.96878617 au
    Multiplicity: Singlet
    Trans. Mom.:  0.0000 X  -0.2156 Y   0.0714 Z
    Strength   :     0.0133563830
    D(    3) --> V(    1) amplitude = -0.5409
    D(    4) --> V(    2) amplitude =  0.8351
 
 ---------------------------------------------------
  SETman timing summary (seconds)
  CPU time                 1.39s
  System time              0.00s
  Wall time                0.73s



*********SPIN-ORBIT COUPLING JOB BEGINS HERE*********


=======================================================================================
    SPIN-ORBIT COUPLING BETWEEN THE SINGLET GROUND STATE AND EXCITED TRIPLET STATE
=======================================================================================

SOC between the singlet ground state and excited triplet states (ms=0):
T1(ms=0)      0.000000  +  -44.677284i    cm-1
T2(ms=0)      0.000000  +  -0.000000i    cm-1
T3(ms=0)      0.000000  +  78.913890i    cm-1
T4(ms=0)      0.000000  +  0.000000i    cm-1
SOC between the singlet ground state and excited triplet states (ms=1):
T1(ms=1)      48.878430  + (-0.000000i)    cm-1
T2(ms=1)      -0.000000  + (-7.605108i)    cm-1
T3(ms=1)      44.133355  + (-0.000000i)    cm-1
T4(ms=1)      0.000000  + (-28.173176i)    cm-1
SOC between the singlet ground state and excited triplet states (ms=-1):
T1(ms=-1)     48.878430  - (-0.000000i)    cm-1
T2(ms=-1)     -0.000000  - (-7.605108i)    cm-1
T3(ms=-1)     44.133355  - (-0.000000i)    cm-1
T4(ms=-1)     0.000000  - (-28.173176i)    cm-1
Total SOC between the singlet ground state and excited triplet states:
T1      82.305902    cm-1
T2      10.755247    cm-1
T3      100.612664    cm-1
T4      39.842887    cm-1




=======================================================================================
                     SPIN-ORBIT COUPLING BETWEEN EXCITED TRIPLET STATES
=======================================================================================

SOC between the T1 (ms=0) state and excited triplet states (ms=1):
T2(ms=1)      43.769237  + (-0.000000i)    cm-1
T3(ms=1)      0.000000  + (30.702888i)    cm-1
T4(ms=1)      14.498245  + (-0.000000i)    cm-1
SOC between the T1 (ms=0) state and excited triplet states (ms=-1):
T2(ms=-1)     -43.769237  + (-0.000000i)    cm-1
T3(ms=-1)     -0.000000  + (30.702888i)    cm-1
T4(ms=-1)     -14.498245  + (-0.000000i)    cm-1
SOC between the T1 (ms=1) state and excited triplet states (ms=0):
T2(ms=0)      -43.769237  + (-0.000000i)    cm-1
T3(ms=0)      -0.000000  + (30.702888i)    cm-1
T4(ms=0)      -14.498245  + (-0.000000i)    cm-1
SOC between the T1 (ms=1) state and excited triplet states (ms=1):
T2(ms=1)      0.000000  + (-50.273623i)    cm-1
T3(ms=1)      0.000000  + (-0.000000i)    cm-1
T4(ms=1)      0.000000  + (29.933381i)    cm-1
SOC between the T1 (ms=-1) state and excited triplet states (ms=0):
T2(ms=0)      43.769237  + (-0.000000i)    cm-1
T3(ms=0)      0.000000  + (30.702888i)    cm-1
T4(ms=0)      14.498245  + (-0.000000i)    cm-1
SOC between the T1 (ms=-1) state and excited triplet states (ms=-1):
T2(ms=-1)     0.000000  + (50.273623i)    cm-1
T3(ms=-1)     0.000000  + (0.000000i)    cm-1
T4(ms=-1)     0.000000  + (-29.933381i)    cm-1
Total SOC between the T1 state and excited triplet states:
T2      112.773484    cm-1
T3      61.405776    cm-1
T4      51.310925    cm-1



SOC between the T2 (ms=0) state and excited triplet states (ms=1):
T3(ms=1)      -6.297781  + (0.000000i)    cm-1
T4(ms=1)      -0.000000  + (8.835057i)    cm-1
SOC between the T2 (ms=0) state and excited triplet states (ms=-1):
T3(ms=-1)     6.297781  + (0.000000i)    cm-1
T4(ms=-1)     0.000000  + (8.835057i)    cm-1
SOC between the T2 (ms=1) state and excited triplet states (ms=0):
T3(ms=0)      6.297781  + (0.000000i)    cm-1
T4(ms=0)      0.000000  + (8.835057i)    cm-1
SOC between the T2 (ms=1) state and excited triplet states (ms=1):
T3(ms=1)      0.000000  + (-5.361951i)    cm-1
T4(ms=1)      0.000000  + (0.000000i)    cm-1
SOC between the T2 (ms=-1) state and excited triplet states (ms=0):
T3(ms=0)      -6.297781  + (0.000000i)    cm-1
T4(ms=0)      -0.000000  + (8.835057i)    cm-1
SOC between the T2 (ms=-1) state and excited triplet states (ms=-1):
T3(ms=-1)     0.000000  + (5.361951i)    cm-1
T4(ms=-1)     0.000000  + (-0.000000i)    cm-1
Total SOC between the T2 state and excited triplet states:
T3      14.702013    cm-1
T4      17.670113    cm-1



SOC between the T3 (ms=0) state and excited triplet states (ms=1):
T4(ms=1)      34.139589  + (0.000000i)    cm-1
SOC between the T3 (ms=0) state and excited triplet states (ms=-1):
T4(ms=-1)     -34.139589  + (0.000000i)    cm-1
SOC between the T3 (ms=1) state and excited triplet states (ms=0):
T4(ms=0)      -34.139589  + (0.000000i)    cm-1
SOC between the T3 (ms=1) state and excited triplet states (ms=1):
T4(ms=1)      0.000000  + (-51.118247i)    cm-1
SOC between the T3 (ms=-1) state and excited triplet states (ms=0):
T4(ms=0)      34.139589  + (0.000000i)    cm-1
SOC between the T3 (ms=-1) state and excited triplet states (ms=-1):
T4(ms=-1)     0.000000  + (51.118247i)    cm-1
Total SOC between the T3 state and excited triplet states:
T4      99.439411    cm-1







=======================================================================================
         SPIN-ORBIT COUPLING BETWEEN EXCITED SINGLET STATES AND TRIPLET STATES
=======================================================================================

SOC between the S1 state and excited triplet states (ms=0):
T1(ms=0)      0.000000  +  0.000000i    cm-1
T2(ms=0)      0.000000  +  -50.307450i    cm-1
T3(ms=0)      0.000000  +  -0.000000i    cm-1
T4(ms=0)      0.000000  +  30.205761i    cm-1
SOC between the S1 state and excited triplet states (ms=1):
T1(ms=1)      (0.000000)  + (-0.171651i)    cm-1
T2(ms=1)      (-43.914779)  + (-0.000000i)    cm-1
T3(ms=1)      (-0.000000)  + (29.840963i)    cm-1
T4(ms=1)      (-14.912585)  + (0.000000i)    cm-1
SOC between the S1 state and excited triplet states (ms=-1):
T1(ms=-1)    -(0.000000)  + (-0.171651i)    cm-1
T2(ms=-1)    -(-43.914779)  + (-0.000000i)    cm-1
T3(ms=-1)    -(-0.000000)  + (29.840963i)    cm-1
T4(ms=-1)    -(-14.912585)  + (0.000000i)    cm-1
Total SOC between the S1 state and excited triplet states:
T1      0.242751    cm-1
T2      79.924059    cm-1
T3      42.201494    cm-1
T4      36.839630    cm-1



SOC between the S2 state and excited triplet states (ms=0):
T1(ms=0)      0.000000  +  0.000000i    cm-1
T2(ms=0)      0.000000  +  5.260747i    cm-1
T3(ms=0)      0.000000  +  0.000000i    cm-1
T4(ms=0)      0.000000  +  -51.592528i    cm-1
SOC between the S2 state and excited triplet states (ms=1):
T1(ms=1)      (0.000000)  + (-29.815912i)    cm-1
T2(ms=1)      (-5.876476)  + (-0.000000i)    cm-1
T3(ms=1)      (-0.000000)  + (-0.128402i)    cm-1
T4(ms=1)      (-34.188511)  + (0.000000i)    cm-1
SOC between the S2 state and excited triplet states (ms=-1):
T1(ms=-1)    -(0.000000)  + (-29.815912i)    cm-1
T2(ms=-1)    -(-5.876476)  + (-0.000000i)    cm-1
T3(ms=-1)    -(-0.000000)  + (-0.128402i)    cm-1
T4(ms=-1)    -(-34.188511)  + (0.000000i)    cm-1
Total SOC between the S2 state and excited triplet states:
T1      42.166067    cm-1
T2      9.835720    cm-1
T3      0.181588    cm-1
T4      70.707125    cm-1



SOC between the S3 state and excited triplet states (ms=0):
T1(ms=0)      0.000000  +  60.527241i    cm-1
T2(ms=0)      0.000000  +  -0.000000i    cm-1
T3(ms=0)      0.000000  +  11.674671i    cm-1
T4(ms=0)      0.000000  +  -0.000000i    cm-1
SOC between the S3 state and excited triplet states (ms=1):
T1(ms=1)      (35.779788)  + (0.000000i)    cm-1
T2(ms=1)      (0.000000)  + (10.917196i)    cm-1
T3(ms=1)      (-10.477856)  + (0.000000i)    cm-1
T4(ms=1)      (0.000000)  + (57.507112i)    cm-1
SOC between the S3 state and excited triplet states (ms=-1):
T1(ms=-1)    -(35.779788)  + (0.000000i)    cm-1
T2(ms=-1)    -(0.000000)  + (10.917196i)    cm-1
T3(ms=-1)    -(-10.477856)  + (0.000000i)    cm-1
T4(ms=-1)    -(0.000000)  + (57.507112i)    cm-1
Total SOC between the S3 state and excited triplet states:
T1      78.891910    cm-1
T2      15.439246    cm-1
T3      18.864487    cm-1
T4      81.327337    cm-1



SOC between the S4 state and excited triplet states (ms=0):
T1(ms=0)      0.000000  +  29.204821i    cm-1
T2(ms=0)      0.000000  +  -0.000000i    cm-1
T3(ms=0)      0.000000  +  41.456284i    cm-1
T4(ms=0)      0.000000  +  0.000000i    cm-1
SOC between the S4 state and excited triplet states (ms=1):
T1(ms=1)      (-20.412740)  + (0.000000i)    cm-1
T2(ms=1)      (-0.000000)  + (1.392102i)    cm-1
T3(ms=1)      (37.555272)  + (-0.000000i)    cm-1
T4(ms=1)      (-0.000000)  + (-6.169170i)    cm-1
SOC between the S4 state and excited triplet states (ms=-1):
T1(ms=-1)    -(-20.412740)  + (0.000000i)    cm-1
T2(ms=-1)    -(-0.000000)  + (1.392102i)    cm-1
T3(ms=-1)    -(37.555272)  + (-0.000000i)    cm-1
T4(ms=-1)    -(-0.000000)  + (-6.169170i)    cm-1
Total SOC between the S4 state and excited triplet states:
T1      41.064358    cm-1
T2      1.968729    cm-1
T3      67.375221    cm-1
T4      8.724524    cm-1






            *********SOC CODE ENDS HERE*********




                    STATE-TO-STATE TRANSITION MOMENTS


    Electron Dipole Moments of Ground State
 -----------------------------------------------------
   State     X           Y           Z(a.u.) 
 -----------------------------------------------------
       0     0.000000    1.300841    0.947111
 -----------------------------------------------------

 Within CIS/TDA Excited States:

    Electron Dipole Moments of Triplet Excited State
 -----------------------------------------------------
   State     X           Y           Z(a.u.) 
 -----------------------------------------------------
       1     0.000000    1.895546    2.164075
       3     0.000000    1.823154    2.122535
       4     0.000000    2.445870    1.472994
       6     0.000000    2.368149    1.372921
 -----------------------------------------------------

                Transition Moments Between Ground and Triplet Excited States
 --------------------------------------------------------------------------------
    States   X          Y          Z           Strength(a.u.)
 --------------------------------------------------------------------------------
    0    1   0.000000   0.000000   0.000000              0
    0    3   0.000000   0.000000   0.000000              0
    0    4   0.000000   0.000000   0.000000              0
    0    6   0.000000   0.000000   0.000000              0
 --------------------------------------------------------------------------------

                Transition Moments Between Triplet Excited States
 --------------------------------------------------------------------------------
    States   X          Y          Z           Strength(a.u.)
 --------------------------------------------------------------------------------
    1    3   0.141759   0.000000  -0.000000   0.0008820152
    1    4   0.000000  -1.067329   1.011496      0.1022192
    1    6  -0.018428   0.000000   0.000000   2.894918E-05
    3    4   0.005304  -0.000000   0.000000   9.515553E-08
    3    6  -0.000000  -0.835833   0.726613     0.05072422
    4    6   0.136187  -0.000000   0.000000   0.0007042604
 --------------------------------------------------------------------------------

 Within CIS/TDA Excited States:

    Electron Dipole Moments of Singlet Excited State
 -----------------------------------------------------
   State     X           Y           Z(a.u.) 
 -----------------------------------------------------
       2     0.000000    1.903150    2.203818
       5     0.000000    2.481787    1.473044
       7     0.000000    1.896353    2.145199
       8     0.000000    2.362852    1.364006
 -----------------------------------------------------

                Transition Moments Between Ground and Singlet Excited States
 --------------------------------------------------------------------------------
    States   X          Y          Z           Strength(a.u.)
 --------------------------------------------------------------------------------
    0    2   0.159088   0.000000  -0.000000    0.003767798
    0    5  -0.038668   0.000000  -0.000000   0.0002868084
    0    7  -0.000000   0.421885   0.528148      0.1012771
    0    8   0.000000  -0.215642   0.071420     0.01335638
 --------------------------------------------------------------------------------

                Transition Moments Between Singlet Excited States
 --------------------------------------------------------------------------------
    States   X          Y          Z           Strength(a.u.)
 --------------------------------------------------------------------------------
    2    5   0.000000  -1.089808   1.028835     0.09646942
    2    7   0.164346   0.000000   0.000000    0.001965671
    2    8   0.002864  -0.000000  -0.000000   9.020868E-07
    5    7  -0.004680   0.000000  -0.000000   6.534342E-07
    5    8   0.113103  -0.000000   0.000000   0.0008572624
    7    8   0.000000  -1.226098   1.179333       0.107618
 --------------------------------------------------------------------------------

                    END OF TRANSITION MOMENT CALCULATION

 STSman time:  CPU 0.00 s  wall 0.00 s

 
 --------------------------------------------------------------
 
                    Orbital Energies (a.u.)
 --------------------------------------------------------------
 
 Alpha MOs
 -- Occupied --
-19.1656  -0.9566  -0.4663  -0.3622  -0.2868
 -- Virtual --
  0.0030   0.0782   0.7323   0.7537   0.8882   0.9651   1.0533   1.3946
 --------------------------------------------------------------
 
          Ground-State Mulliken Net Atomic Charges

     Atom                 Charge (a.u.)
  ----------------------------------------
      1 H                     0.320542
      2 H                     0.333856
      3 O                    -0.654398
  ----------------------------------------
  Sum of atomic charges =     0.000000

 -----------------------------------------------------------------
                    Cartesian Multipole Moments
 -----------------------------------------------------------------
    Charge (ESU x 10^10)
                 0.0000
    Dipole Moment (Debye)
         X      -0.0000      Y       1.6924      Z       1.7105
       Tot       2.4062
    Quadrupole Moments (Debye-Ang)
        XX      -7.5124     XY       0.0000     YY      -4.8939
        XZ       0.0000     YZ      -0.5611     ZZ      -4.8602
    Octopole Moments (Debye-Ang^2)
       XXX      -0.0000    XXY      -0.6032    XYY       0.0000
       YYY       0.3245    XXZ      -0.5207    XYZ      -0.0000
       YYZ      -0.7242    XZZ       0.0000    YZZ      -0.8006
       ZZZ       0.6696
    Hexadecapole Moments (Debye-Ang^3)
      XXXX      -5.5723   XXXY       0.0000   XXYY      -2.4728
      XYYY       0.0000   YYYY      -6.5213   XXXZ       0.0000
      XXYZ       0.1247   XYYZ       0.0000   YYYZ       0.0985
      XXZZ      -2.5565   XYZZ       0.0000   YYZZ      -3.1000
      XZZZ       0.0000   YZZZ       0.0619   ZZZZ      -6.7479
 -----------------------------------------------------------------
Archival summary:
1\1\her2-w082\SP\ProcedureUnspecified\6-31G\12\niacobel\FriDec1110:40:282020FriDec1110:40:282020\0\\#,ProcedureUnspecified,6-31G,\\0,1\O\H,1,1.10802\H,1,1.16054,2,100.827\\\@

 Total job time:  1.32s(wall), 2.44s(cpu) 
 Fri Dec 11 10:40:28 2020

        *************************************************************
        *                                                           *
        *  Thank you very much for using Q-Chem.  Have a nice day.  *
        *                                                           *
        *************************************************************


